! TOUCHSTONE file generated by CST MICROWAVE STUDIO
! Date and time: Fri Jun 12 09:03:45 2026
! Project name: D-0001701866_01-XY+0 Z+1.4 W26 SPK-0528-baseline-SPK HSG - NMT Lengthen-2 - 3 - op2.cst
! Header version: 2024
! Port assignment regex: !\s*Touchstone port\s*([0-9]+)\s*=\s*(CST MWS port|CST DES external port|CST DES block port)\s*(.+)\s* \(\"(.*)\"\)(\s*mode\s*([0-9]+))?.*
! Touchstone port assignment:
! Touchstone port 1 = CST MWS port 1 ("")
! Touchstone port 2 = CST MWS port 2 ("")
# GHz S MA R 50
0                      0.9994141             180     0.0001992513              -0     0.0005037719              -0        0.9993407             180
0.004                  0.9994035         179.406      0.003187703        85.90685      0.003155628        80.43245        0.9993389         179.553
0.008                  0.9993716        178.8121      0.006366611        87.18661      0.006254167        84.61309        0.9993333        179.1059
0.012                  0.9993187        178.2183      0.009548634        87.27193      0.009372946        85.75924        0.9993231        178.6586
0.016                  0.9992449        177.6248       0.01273257        87.05573       0.01250492        86.12716        0.9993071        178.2109
0.02                   0.9991509        177.0316        0.0159183        86.71647       0.01565047        86.17293        0.9992834        177.7629
0.024                  0.9990374        176.4388       0.01910568        86.31346       0.01881065        86.04766          0.99925        177.3144
0.028                  0.9989051        175.8465       0.02229439        85.87202       0.02198613        85.81543         0.999205        176.8655
0.032                  0.9987549        175.2547        0.0254839        85.40497       0.02517688        85.50797        0.9991457        176.4161
0.036                  0.9985882        174.6635       0.02867346        84.91961       0.02838209        85.14304          0.99907        175.9663
0.04                   0.9984061        174.0729       0.03186215        84.42068       0.03160019        84.73181         0.998976        175.5162
0.044                  0.9982101        173.4831       0.03504892        83.91155       0.03482888        84.28203        0.9988617        175.0659
0.048                  0.9980021         172.894       0.03823264        83.39483       0.03806525        83.79974         0.998726        174.6155
0.052                  0.9977837        172.3056       0.04141219        82.87274       0.04130591        83.29007        0.9985678        174.1652
0.056                  0.9975567         171.718       0.04458652        82.34723       0.04454713        82.75768        0.9983872        173.7151
0.06                    0.997323        171.1311       0.04775474        81.81999       0.04778507        82.20696        0.9981844        173.2653
0.064                  0.9970842        170.5449       0.05091616        81.29257       0.05101588        81.64213        0.9979603        172.8161
0.068                  0.9968416        169.9593       0.05407039        80.76626       0.05423598        81.06728        0.9977162        172.3675
0.072                  0.9965968        169.3742       0.05721732        80.24219       0.05744215        80.48626        0.9974548        171.9198
0.076                  0.9963508        168.7896       0.06035716        79.72127       0.06063173        79.90277        0.9971779        171.4729
0.08                   0.9961042        168.2053       0.06349048        79.20411       0.06380274         79.3202        0.9968886        171.0269
0.084                  0.9958572        167.6213       0.06661811        78.69107       0.06695396        78.74159        0.9965899         170.582
0.088                  0.9956097        167.0374       0.06974115        78.18227       0.07008504        78.16958        0.9962848         170.138
0.092                   0.995361        166.4536       0.07286087        77.67755       0.07319646        77.60639        0.9959763        169.6949
0.096                  0.9951102        165.8696       0.07597865        77.17653       0.07628956        77.05369        0.9956668        169.2526
0.1                    0.9948559        165.2855       0.07909589        76.67859        0.0793665        76.51265        0.9953589        168.8111
0.104                  0.9945962        164.7011        0.0822139        76.18301       0.08243006        75.98387        0.9950544        168.3701
0.108                  0.9943291        164.1165        0.0853338        75.68886       0.08548366         75.4674        0.9947545        167.9296
0.112                  0.9940524        163.5316       0.08845647         75.1952       0.08853104        74.96281        0.9944597        167.4892
0.116                  0.9937643        162.9464       0.09158245        74.70111       0.09157616        74.46915        0.9941699         167.049
0.12                   0.9934624         162.361       0.09471186        74.20564       0.09462304        73.98504        0.9938843        166.6085
0.124                  0.9931445        161.7754       0.09784447        73.70801       0.09767542        73.50877        0.9936014        166.1678
0.128                  0.9928096        161.1898        0.1009796        73.20752        0.1007367        73.03836        0.9933189        165.7267
0.132                  0.9924561        160.6043        0.1041162         72.7037        0.1038097        72.57163        0.9930346         165.285
0.136                  0.9920835         160.019        0.1072528        72.19626        0.1068964        72.10638        0.9927452        164.8428
0.14                   0.9916916         159.434        0.1103877        71.68511        0.1099981        71.64044        0.9924476        164.3998
0.144                  0.9912807        158.8495        0.1135193        71.17043        0.1131151        71.17177        0.9921385        163.9563
0.148                  0.9908522        158.2656        0.1166454        70.65255        0.1162468        70.69852        0.9918145        163.5121
0.152                  0.9904072        157.6824        0.1197644        70.13198        0.1193916        70.21917        0.9914729        163.0674
0.156                  0.9899478        157.1001        0.1228745        69.60946        0.1225471        69.73256         0.991111        162.6224
0.16                   0.9894764        156.5188        0.1259744        69.08575        0.1257102        69.23791        0.9907264        162.1771
0.164                  0.9889954        155.9383        0.1290629        68.56169        0.1288772        68.73481        0.9903181        161.7318
0.168                  0.9885075        155.3588        0.1321396        68.03817        0.1320439        68.22333        0.9898851        161.2867
0.172                  0.9880154        154.7802        0.1352043        67.51599         0.135206        67.70388        0.9894274        160.8419
0.176                  0.9875213        154.2024        0.1382575        66.99594        0.1383591        67.17724        0.9889458        160.3976
0.18                   0.9870273        153.6253        0.1412999        66.47862        0.1414992        66.64451        0.9884418        159.9542
0.184                  0.9865348        153.0488        0.1443331        65.96449        0.1446224        66.10703        0.9879174        159.5116
0.188                  0.9860447        152.4728        0.1473586        65.45384        0.1477257         65.5663        0.9873756          159.07
0.192                  0.9855572         151.897        0.1503785        64.94675        0.1508065        65.02397        0.9868193        158.6296
0.196                  0.9850719        151.3214        0.1533948        64.44309        0.1538636        64.48168        0.9862522        158.1904
0.2                    0.9845878        150.7457        0.1564099        63.94255        0.1568963        63.94104        0.9856777        157.7524
0.204                  0.9841027        150.1698        0.1594256        63.44467        0.1599049        63.40357        0.9850994        157.3156
0.208                  0.9836146        149.5937        0.1624437         62.9488         0.162891        62.87059        0.9845204        156.8799
0.212                  0.9831204        149.0172        0.1654657         62.4542        0.1658567        62.34316        0.9839439        156.4451
0.216                  0.9826174        148.4403        0.1684924         61.9601        0.1688053        61.82215        0.9833722        156.0112
0.22                   0.9821021         147.863        0.1715241        61.46567        0.1717404        61.30803         0.982807        155.5779
0.224                  0.9815718        147.2855        0.1745607        60.97017        0.1746663        60.80102        0.9822491         155.145
0.228                  0.9810232        146.7077        0.1776011        60.47289        0.1775876        60.30093        0.9816988        154.7123
0.232                  0.9804545        146.1298        0.1806441         59.9733        0.1805087        59.80736        0.9811555        154.2797
0.236                  0.9798636         145.552        0.1836876        59.47096        0.1834342        59.31952        0.9806178        153.8469
0.24                   0.9792495        144.9745        0.1867293        58.96566         0.186368        58.83641        0.9800835        153.4137
0.244                  0.9786122        144.3975        0.1897666        58.45738        0.1893135        58.35686        0.9795496          152.98
0.248                  0.9779523        143.8212        0.1927967        57.94627        0.1922733        57.87952        0.9790129        152.5457
0.252                  0.9772712        143.2458        0.1958171        57.43267         0.195249        57.40301          0.97847        152.1107
0.256                  0.9765709        142.6714        0.1988251        56.91711        0.1982412         56.9259        0.9779168        151.6751
0.26                   0.9758548        142.0983        0.2018189        56.40023        0.2012496        56.44687        0.9773497        151.2388
0.264                  0.9751262        141.5264        0.2047967        55.88276        0.2042725        55.96473         0.976765         150.802
0.268                  0.9743886        140.9559        0.2077576         55.3655        0.2073075        55.47845        0.9761597        150.3648
0.272                  0.9736462        140.3868        0.2107014        54.84923        0.2103511        54.98725        0.9755313        149.9274
0.276                  0.9729026        139.8188        0.2136285        54.33474        0.2133993         54.4906        0.9748776        149.4899
0.28                    0.972161         139.252        0.2165401        53.82267        0.2164472        53.98828        0.9741978        149.0526
0.284                  0.9714247        138.6863         0.219438        53.31359          0.21949        53.48035        0.9734916        148.6157
0.288                  0.9706954        138.1212        0.2223246        52.80788        0.2225226        52.96714        0.9727595        148.1795
0.292                  0.9699747        137.5568        0.2252028        52.30576        0.2255401        52.44925        0.9720032        147.7442
0.296                  0.9692626        136.9926        0.2280758        51.80725         0.228538        51.92752        0.9712251          147.31
0.3                    0.9685583        136.4285        0.2309467        51.31216        0.2315126        51.40297         0.970428         146.877
0.304                  0.9678599        135.8642        0.2338187        50.82013        0.2344609        50.87675        0.9696159        146.4454
0.308                  0.9671651        135.2995        0.2366945        50.33062        0.2373808        50.35009        0.9687921        146.0153
0.312                    0.96647        134.7343        0.2395765        49.84298        0.2402717        49.82426        0.9679614        145.5866
0.316                  0.9657707        134.1684        0.2424664        49.35644        0.2431336        49.30047         0.967128        145.1594
0.32                   0.9650625        133.6018         0.245365        48.87019        0.2459681        48.77987        0.9662953        144.7336
0.324                  0.9643411        133.0345        0.2482726        48.38341        0.2487777        48.26342        0.9654674         144.309
0.328                  0.9636018        132.4667        0.2511881        47.89536         0.251566        47.75194         0.964647        143.8855
0.332                  0.9628406        131.8983        0.2541101        47.40532        0.2543374        47.24597        0.9638364        143.4628
0.336                  0.9620541        131.3297         0.257036        46.91279         0.257097        46.74585        0.9630369        143.0406
0.34                   0.9612401        130.7612        0.2599628        46.41738        0.2598501         46.2516        0.9622492        142.6189
0.344                  0.9603968        130.1928         0.262887        45.91891        0.2626025        45.76301        0.9614723        142.1971
0.348                  0.9595244        129.6251        0.2658047        45.41739        0.2653595        45.27963         0.960705        141.7752
0.352                  0.9586237        129.0582        0.2687122        44.91304        0.2681262         44.8007        0.9599448         141.353
0.356                   0.957697        128.4925        0.2716057        44.40625         0.270907        44.32534        0.9591883        140.9301
0.36                   0.9567472        127.9282        0.2744821        43.89761        0.2737054        43.85247        0.9584317        140.5064
0.364                  0.9557791        127.3655        0.2773386        43.38781        0.2765238        43.38091        0.9576707         140.082
0.368                  0.9547975        126.8045        0.2801736        42.87765        0.2793633        42.90947        0.9569007        139.6567
0.372                  0.9538077        126.2453        0.2829861        42.36797        0.2822239        42.43693         0.956117        139.2306
0.376                  0.9528153        125.6878        0.2857762         41.8596        0.2851042        41.96216        0.9553154        138.8037
0.38                   0.9518255        125.1319        0.2885452        41.35334        0.2880013        41.48419        0.9544919        138.3763
0.384                  0.9508431        124.5775        0.2912952        40.84986        0.2909116        41.00218         0.953643        137.9485
0.388                  0.9498725        124.0244        0.2940293        40.34972        0.2938301        40.51552         0.952766        137.5206
0.392                  0.9489165        123.4721        0.2967512        39.85329        0.2967514        40.02386        0.9518597        137.0928
0.396                  0.9479763        122.9204        0.2994653        39.36075        0.2996693        39.52709         0.950923        136.6654
0.4                    0.9470526        122.3689        0.3021762        38.87206        0.3025777        39.02538        0.9499571        136.2388
0.404                   0.946144        121.8171        0.3048886        38.38698        0.3054704        38.51913         0.948963        135.8132
0.408                  0.9452476        121.2649        0.3076067        37.90506        0.3083417        38.00898        0.9479434        135.3888
0.412                  0.9443596        120.7118        0.3103345        37.42567        0.3111866        37.49579        0.9469022         134.966
0.416                  0.9434748        120.1576         0.313075        36.94806        0.3140012        36.98055        0.9458431        134.5448
0.42                   0.9425874        119.6022        0.3158301        36.47137        0.3167824        36.46436        0.9447714        134.1254
0.424                  0.9416905        119.0455        0.3186009        35.99469        0.3195288        35.94843         0.943692        133.7078
0.428                  0.9407778        118.4876        0.3213869        35.51713        0.3222404         35.4339        0.9426101         133.292
0.432                  0.9398429        117.9284        0.3241868        35.03784        0.3249184        34.92192        0.9415306         132.878
0.436                  0.9388799        117.3683        0.3269976         34.5561        0.3275657        34.41349        0.9404584        132.4655
0.44                   0.9378841        116.8076        0.3298158        34.07134        0.3301865        33.90949        0.9393972        132.0543
0.444                  0.9368518        116.2466        0.3326368        33.58317        0.3327862        33.41058        0.9383501        131.6442
0.448                  0.9357812        115.6857        0.3354552        33.09145        0.3353707         32.9172        0.9373191        131.2348
0.452                  0.9346721        115.1254        0.3382657         32.5962        0.3379472        32.42953        0.9363049        130.8258
0.456                  0.9335257         114.566         0.341063        32.09772        0.3405228        31.94752        0.9353072        130.4169
0.46                   0.9323455         114.008         0.343842         31.5965        0.3431045         31.4708        0.9343241        130.0078
0.464                  0.9311359        113.4518        0.3465984        31.09322        0.3456994         30.9988        0.9333531        129.5981
0.468                  0.9299033        112.8976        0.3493289        30.58868        0.3483132        30.53069        0.9323899        129.1875
0.472                  0.9286545        112.3456        0.3520312        30.08381        0.3509512        30.06548        0.9314301         128.776
0.476                  0.9273975        111.7959        0.3547047        29.57956        0.3536171        29.60205        0.9304679        128.3632
0.48                     0.92614        111.2485          0.35735        29.07687         0.356313        29.13916        0.9294977        127.9491
0.484                  0.9248896        110.7031        0.3599693        28.57663        0.3590396        28.67559        0.9285134        127.5339
0.488                   0.923653        110.1595         0.362566         28.0796        0.3617957        28.21011         0.927509        127.1175
0.492                   0.922436        109.6173        0.3651449        27.58637        0.3645784        27.74164        0.9264792        126.7001
0.496                  0.9212426         109.076        0.3677119        27.09732        0.3673834         27.2692        0.9254195        126.2821
0.5                     0.920075        108.5352        0.3702731        26.61262        0.3702049        26.79203        0.9243259        125.8636
0.504                  0.9189335        107.9943        0.3728353        26.13217        0.3730359        26.30962         0.923196         125.445
0.508                  0.9178162        107.4527        0.3754052        25.65564        0.3758687        25.82169        0.9220286        125.0268
0.512                  0.9167189        106.9099        0.3779887        25.18246        0.3786952        25.32824        0.9208238        124.6093
0.516                   0.915636        106.3655        0.3805912        24.71186        0.3815073        24.82957        0.9195834        124.1929
0.52                   0.9145597        105.8191        0.3832165        24.24293         0.384297         24.3262          0.91831         123.778
0.524                  0.9134813        105.2705        0.3858674        23.77462        0.3870573        23.81893         0.917008        123.3649
0.528                  0.9123916        104.7195        0.3885447        23.30587        0.3897821        23.30872        0.9156829        122.9539
0.532                  0.9112809        104.1663        0.3912475         22.8356        0.3924672        22.79669        0.9143404        122.5451
0.536                  0.9101397        103.6109        0.3939732        22.36284        0.3951096        22.28409        0.9129876        122.1387
0.54                   0.9089598        103.0536        0.3967173        21.88675        0.3977082        21.77218        0.9116309        121.7345
0.544                  0.9077341         102.495        0.3994743        21.40666        0.4002642        21.26222        0.9102774        121.3327
0.548                  0.9064576        101.9356        0.4022372        20.92217        0.4027805         20.7554        0.9089333        120.9328
0.552                  0.9051272        101.3759        0.4049985        20.43311        0.4052619        20.25275        0.9076041        120.5348
0.556                  0.9037429        100.8167        0.4077503        19.93958        0.4077151        19.75516        0.9062944        120.1381
0.56                   0.9023064        100.2585         0.410485        19.44198         0.410148        19.26323         0.905007        119.7425
0.564                  0.9008224        99.70198        0.4131953        18.94092        0.4125696        18.77735        0.9037435        119.3473
0.568                  0.8992977        99.14766        0.4158755        18.43724        0.4149897        18.29759        0.9025039        118.9522
0.572                  0.8977412        98.59595         0.418521        17.93196        0.4174183        17.82373        0.9012865        118.5567
0.576                   0.896163        98.04713        0.4211292        17.42619         0.419865        17.35526        0.9000879        118.1603
0.58                   0.8945745        97.50132        0.4236995        16.92109        0.4223389        16.89139        0.8989027        117.7626
0.584                   0.892987         96.9584        0.4262333        16.41781        0.4248477         16.4311        0.8977251        117.3633
0.588                  0.8914115        96.41817        0.4287344        15.91742        0.4273975        15.97316        0.8965475        116.9621
0.592                   0.889858        95.88018        0.4312082        15.42079        0.4299926         15.5162         0.895362        116.5589
0.596                  0.8883347        95.34388        0.4336623        14.92864        0.4326349        15.05879        0.8941601        116.1537
0.6                    0.8868474        94.80851        0.4361051        14.44138        0.4353241        14.59949        0.8929333        115.7466
0.604                  0.8853993        94.27329        0.4385463        13.95917        0.4380574        14.13691        0.8916738        115.3378
0.608                  0.8839906        93.73739        0.4409958        13.48182        0.4408297         13.6698        0.8903746        114.9276
0.612                  0.8826182        93.19991        0.4434632        13.00886        0.4436338        13.19712        0.8890299        114.5164
0.616                   0.881276        92.66009        0.4459574        12.53954        0.4464605        12.71806         0.887635        114.1047
0.62                   0.8799552         92.1172        0.4484859        12.07284        0.4492996        12.23211        0.8861879        113.6931
0.624                  0.8786441        91.57068        0.4510541        11.60755        0.4521395        11.73905        0.8846875        113.2821
0.628                  0.8773299        91.02013        0.4536655        11.14234        0.4549685        11.23902        0.8831355        112.8724
0.632                  0.8759981         90.4654        0.4563208         10.6758        0.4577749        10.73248        0.8815351        112.4645
0.636                   0.874634        89.90653        0.4590182        10.20659         0.460548        10.22016        0.8798918         112.059
0.64                   0.8732235        89.34375         0.461753        9.733443        0.4632781        9.703112        0.8782123        111.6561
0.644                  0.8717536        88.77761        0.4645185        9.255295        0.4659575        9.182579        0.8765052        111.2564
0.648                  0.8702136        88.20873        0.4673055         8.77133        0.4685807        8.659985        0.8747794        110.8599
0.652                  0.8685958        87.63802        0.4701034        8.281038        0.4711446        8.136863        0.8730451        110.4668
0.656                  0.8668953        87.06638        0.4729006        7.784245        0.4736493        7.614775        0.8713119        110.0769
0.66                   0.8651111        86.49487         0.475685        7.281131        0.4760975        7.095244        0.8695895        109.6901
0.664                  0.8632465        85.92453         0.478445        6.772226        0.4784949        6.579681        0.8678862        109.3059
0.668                  0.8613079        85.35628          0.48117         6.25838        0.4808498        6.069311        0.8662093        108.9238
0.672                  0.8593059        84.79102        0.4838514         5.74072        0.4831732        5.565107        0.8645637        108.5432
0.676                  0.8572536        84.22938        0.4864828        5.220591        0.4854778        5.067739        0.8629529        108.1635
0.68                   0.8551669        83.67185        0.4890605        4.699479        0.4877779         4.57753        0.8613772        107.7838
0.684                  0.8530625        83.11858        0.4915842        4.178923        0.4900887         4.09442         0.859835        107.4034
0.688                  0.8509585        82.56948         0.494057        3.660429        0.4924253        3.617966        0.8583215        107.0215
0.692                  0.8488716        82.02413         0.496485        3.145377        0.4948024         3.14734          0.85683        106.6375
0.696                  0.8468172        81.48183        0.4988776         2.63493         0.497233        2.681359        0.8553513        106.2509
0.7                     0.844808         80.9416        0.5012469         2.12996        0.4997286        2.218529        0.8538742         105.861
0.704                  0.8428532        80.40226        0.5036068        1.630978        0.5022975        1.757106        0.8523863        105.4677
0.708                   0.840957        79.86245        0.5059729        1.138091         0.504945        1.295177        0.8508742        105.0708
0.712                  0.8391197        79.32069         0.508361       0.6509728        0.5076729       0.8307393        0.8493244        104.6704
0.716                  0.8373356         78.7755        0.5107864       0.1688664         0.510479       0.3618034        0.8477234        104.2667
0.72                   0.8355943        78.22554        0.5132633      -0.3093938        0.5133576      -0.1135169        0.8460591        103.8603
0.724                  0.8338809        77.66951        0.5158032      -0.7853298        0.5162989      -0.5969093        0.8443207        103.4518
0.728                  0.8321758        77.10643        0.5184148       -1.260746        0.5192901        -1.08978        0.8424996         103.042
0.732                  0.8304565        76.53558        0.5211028       -1.737634        0.5223154       -1.593183        0.8405902        102.6317
0.736                  0.8286985        75.95663        0.5238678       -2.218063         0.525357       -2.107764        0.8385893        102.2221
0.74                   0.8268764        75.36962         0.526706       -2.704063        0.5283958       -2.633724        0.8364972         101.814
0.744                  0.8249654        74.77495        0.5296089       -3.197507        0.5314118       -3.170806        0.8343178        101.4087
0.748                  0.8229425        74.17351        0.5325642       -3.699994        0.5343861       -3.718301        0.8320575         101.007
0.752                  0.8207884        73.56646        0.5355559       -4.212759        0.5373009       -4.275074        0.8297267        100.6099
0.756                  0.8184877        72.95531        0.5385655       -4.736584        0.5401406       -4.839612        0.8273376        100.2179
0.76                    0.816031        72.34176        0.5415725       -5.271757        0.5428932       -5.410087        0.8249047        99.83178
0.764                  0.8134151        71.72771        0.5445559       -5.818041        0.5455503        -5.98444        0.8224439        99.45161
0.768                   0.810643        71.11504        0.5474957       -6.374679        0.5481081       -6.560473        0.8199717         99.0775
0.772                  0.8077244        70.50559        0.5503733       -6.940433        0.5505678       -7.135954        0.8175044        98.70917
0.776                  0.8046755        69.90101        0.5531735       -7.513646        0.5529356       -7.708728        0.8150567        98.34607
0.78                   0.8015179         69.3026        0.5558852       -8.092336        0.5552231       -8.276826        0.8126419        97.98739
0.784                  0.7982774         68.7113        0.5585024       -8.674307        0.5574464        -8.83859        0.8102697         97.6321
0.788                  0.7949826        68.12754        0.5610246        -9.25728        0.5596263       -9.392762         0.807946        97.27894
0.792                  0.7916632        67.55118        0.5634574       -9.839042        0.5617868       -9.938601         0.805673        96.92651