! TOUCHSTONE file generated by CST MICROWAVE STUDIO
! Date and time: Sat Jul 18 13:31:05 2026
! Project name: test.cst
! Header version: 2024
! Port assignment regex: !\s*Touchstone port\s*([0-9]+)\s*=\s*(CST MWS port|CST DES external port|CST DES block port)\s*(.+)\s* \(\"(.*)\"\)(\s*mode\s*([0-9]+))?.*
! Touchstone port assignment:
! Touchstone port 1 = CST MWS port 1 ("")
# GHz S RI R 50
0                              1              -0
0.004                  0.9999976    -0.002118998
0.008                  0.9999906    -0.004238002
0.012                   0.999979    -0.006357015
0.016                  0.9999628    -0.008476043
0.02                   0.9999419     -0.01059509
0.024                  0.9999164     -0.01271417
0.028                  0.9998862     -0.01483327
0.032                  0.9998513     -0.01695242
0.036                  0.9998118      -0.0190716
0.04                   0.9997677     -0.02119082
0.044                   0.999719      -0.0233101
0.048                  0.9996654     -0.02542943
0.052                  0.9996074     -0.02754882
0.056                  0.9995447     -0.02966828
0.06                   0.9994774     -0.03178781
0.064                  0.9994053     -0.03390741
0.068                  0.9993287     -0.03602709
0.072                  0.9992473     -0.03814685
0.076                  0.9991614     -0.04026669
0.08                   0.9990706     -0.04238664
0.084                  0.9989754     -0.04450667
0.088                  0.9988754      -0.0466268
0.092                  0.9987708     -0.04874705
0.096                  0.9986614      -0.0508674
0.1                    0.9985473     -0.05298786
0.104                  0.9984288     -0.05510844
0.108                  0.9983056     -0.05722915
0.112                  0.9981775     -0.05934997
0.116                  0.9980448     -0.06147093
0.12                   0.9979075     -0.06359202
0.124                  0.9977655     -0.06571323
0.128                  0.9976187      -0.0678346
0.132                  0.9974673     -0.06995611
0.136                  0.9973114     -0.07207778
0.14                   0.9971506     -0.07419959
0.144                  0.9969851     -0.07632156
0.148                   0.996815     -0.07844368
0.152                  0.9966403       -0.080566
0.156                   0.996461     -0.08268847
0.16                   0.9962767      -0.0848111
0.164                  0.9960879     -0.08693393
0.168                  0.9958944     -0.08905692
0.172                  0.9956962     -0.09118013
0.176                  0.9954934     -0.09330351
0.18                   0.9952857      -0.0954271
0.184                  0.9950736      -0.0975509
0.188                  0.9948567      -0.0996749
0.192                   0.994635      -0.1017991
0.196                  0.9944087      -0.1039236
0.2                    0.9941778      -0.1060482
0.204                  0.9939422      -0.1081731
0.208                  0.9937019      -0.1102983
0.212                  0.9934568      -0.1124237
0.216                  0.9932072      -0.1145493
0.22                   0.9929528      -0.1166752
0.224                  0.9926938      -0.1188014
0.228                  0.9924302      -0.1209279
0.232                  0.9921617      -0.1230547
0.236                  0.9918886      -0.1251817
0.24                   0.9916109      -0.1273091
0.244                  0.9913285      -0.1294368
0.248                  0.9910415      -0.1315649
0.252                  0.9907498      -0.1336932
0.256                  0.9904534       -0.135822
0.26                   0.9901524      -0.1379511
0.264                  0.9898466      -0.1400806
0.268                  0.9895362      -0.1422105
0.272                  0.9892211      -0.1443407
0.276                  0.9889014      -0.1464715
0.28                   0.9885769      -0.1486026
0.284                  0.9882479      -0.1507343
0.288                  0.9879141      -0.1528663
0.292                  0.9875757       -0.154999
0.296                  0.9872326       -0.157132
0.3                    0.9868848      -0.1592657
0.304                  0.9865323      -0.1613998
0.308                  0.9861752      -0.1635346
0.312                  0.9858133      -0.1656699
0.316                  0.9854469      -0.1678058
0.32                   0.9850755      -0.1699424
0.324                  0.9846997      -0.1720795
0.328                   0.984319      -0.1742174
0.332                  0.9839337       -0.176356
0.336                  0.9835435      -0.1784953
0.34                   0.9831488      -0.1806353
0.344                  0.9827491      -0.1827761
0.348                  0.9823447      -0.1849177
0.352                  0.9819357      -0.1870601
0.356                  0.9815218      -0.1892034
0.36                   0.9811032      -0.1913474
0.364                  0.9806796      -0.1934925
0.368                  0.9802513      -0.1956384
0.372                  0.9798182      -0.1977852
0.376                  0.9793801      -0.1999331
0.38                   0.9789371       -0.202082
0.384                  0.9784895      -0.2042318
0.388                  0.9780368      -0.2063828
0.392                  0.9775791      -0.2085348
0.396                  0.9771164       -0.210688
0.4                    0.9766488      -0.2128423
0.404                  0.9761761      -0.2149978
0.408                  0.9756985      -0.2171544
0.412                  0.9752156      -0.2193123
0.416                  0.9747278      -0.2214715
0.42                   0.9742348      -0.2236319
0.424                  0.9737366      -0.2257937
0.428                  0.9732333      -0.2279568
0.432                  0.9727246      -0.2301213
0.436                  0.9722107      -0.2322872
0.44                   0.9716915      -0.2344544
0.444                  0.9711669      -0.2366232
0.448                  0.9706369      -0.2387934
0.452                  0.9701016      -0.2409651
0.456                  0.9695606      -0.2431383
0.46                   0.9690142       -0.245313
0.464                  0.9684622      -0.2474894
0.468                  0.9679045      -0.2496673
0.472                  0.9673412      -0.2518468
0.476                  0.9667721       -0.254028
0.48                   0.9661973      -0.2562107
0.484                  0.9656166      -0.2583952
0.488                    0.96503      -0.2605813
0.492                  0.9644374      -0.2627691
0.496                  0.9638389      -0.2649586
0.5                    0.9632343      -0.2671499
0.504                  0.9626235      -0.2693429
0.508                  0.9620066      -0.2715375
0.512                  0.9613834       -0.273734
0.516                  0.9607539      -0.2759322
0.52                    0.960118      -0.2781321
0.524                  0.9594758      -0.2803338
0.528                  0.9588269      -0.2825373
0.532                  0.9581714      -0.2847425
0.536                  0.9575093      -0.2869495
0.54                   0.9568406      -0.2891581
0.544                   0.956165      -0.2913686
0.548                  0.9554825      -0.2935807
0.552                  0.9547931      -0.2957946
0.556                  0.9540967      -0.2980103
0.56                   0.9533933      -0.3002275
0.564                  0.9526826      -0.3024465
0.568                  0.9519648      -0.3046671
0.572                  0.9512397      -0.3068894
0.576                  0.9505072      -0.3091132
0.58                   0.9497673      -0.3113387
0.584                  0.9490199      -0.3135657
0.588                  0.9482648      -0.3157941
0.592                  0.9475022      -0.3180242
0.596                  0.9467317      -0.3202557
0.6                    0.9459535      -0.3224885
0.604                  0.9451675      -0.3247228
0.608                  0.9443735      -0.3269583
0.612                  0.9435716      -0.3291952
0.616                  0.9427614      -0.3314333
0.62                   0.9419433      -0.3336726
0.624                  0.9411169      -0.3359131
0.628                  0.9402822      -0.3381546
0.632                  0.9394392      -0.3403971
0.636                  0.9385877      -0.3426407
0.64                   0.9377279      -0.3448851
0.644                  0.9368594      -0.3471304
0.648                  0.9359824      -0.3493764
0.652                  0.9350967      -0.3516232
0.656                  0.9342024      -0.3538706
0.66                   0.9332993      -0.3561186
0.664                  0.9323874      -0.3583671
0.668                  0.9314666      -0.3606161
0.672                   0.930537      -0.3628653
0.676                  0.9295983      -0.3651148
0.68                   0.9286507      -0.3673646
0.684                  0.9276941      -0.3696144
0.688                  0.9267284      -0.3718643
0.692                  0.9257536      -0.3741142
0.696                  0.9247698      -0.3763638
0.7                    0.9237766      -0.3786133
0.704                  0.9227743      -0.3808624
0.708                  0.9217627      -0.3831111
0.712                   0.920742      -0.3853593
0.716                  0.9197119      -0.3876069
0.72                   0.9186726      -0.3898539
0.724                  0.9176239      -0.3921001
0.728                   0.916566      -0.3943454
0.732                  0.9154987      -0.3965898
0.736                  0.9144221       -0.398833
0.74                   0.9133363      -0.4010752
0.744                   0.912241      -0.4033161
0.748                  0.9111363      -0.4055556
0.752                  0.9100226      -0.4077938
0.756                  0.9088992      -0.4100304
0.76                   0.9077668      -0.4122654
0.764                  0.9066249      -0.4144987
0.768                  0.9054739      -0.4167302
0.772                  0.9043137      -0.4189597
0.776                  0.9031441      -0.4211873
0.78                   0.9019656      -0.4234129
0.784                  0.9007777      -0.4256362
0.788                  0.8995808      -0.4278573
0.792                  0.8983748      -0.4300761
0.796                  0.8971598      -0.4322924
0.8                    0.8959357      -0.4345064
0.804                  0.8947027      -0.4367176
0.808                  0.8934609      -0.4389262
0.812                  0.8922101      -0.4411321
0.816                  0.8909507      -0.4433351
0.82                   0.8896824      -0.4455352
0.824                  0.8884055      -0.4477325
0.828                    0.88712      -0.4499266
0.832                   0.885826      -0.4521177
0.836                  0.8845235      -0.4543057
0.84                   0.8832126      -0.4564904
0.844                  0.8818933      -0.4586719
0.848                  0.8805658        -0.46085
0.852                  0.8792301      -0.4630248
0.856                  0.8778864      -0.4651961
0.86                   0.8765346       -0.467364
0.864                  0.8751749      -0.4695284
0.868                  0.8738073      -0.4716892
0.872                   0.872432      -0.4738464
0.876                  0.8710489          -0.476
0.88                   0.8696584      -0.4781501
0.884                  0.8682603      -0.4802964
0.888                  0.8668547      -0.4824391
0.892                  0.8654419      -0.4845781
0.896                  0.8640218      -0.4867134
0.9                    0.8625945       -0.488845
0.904                  0.8611603      -0.4909729
0.908                  0.8597189      -0.4930971
0.912                  0.8582709      -0.4952176
0.916                   0.856816      -0.4973343
0.92                   0.8553544      -0.4994475
0.924                  0.8538862      -0.5015569
0.928                  0.8524114      -0.5036627
0.932                  0.8509304      -0.5057648
0.936                  0.8494428      -0.5078637
0.94                   0.8479494      -0.5099585
0.944                  0.8464493      -0.5120503
0.948                  0.8449436       -0.514138
0.952                  0.8434316      -0.5162229
0.956                  0.8419136      -0.5183045
0.96                   0.8403901      -0.5203821
0.964                  0.8388608      -0.5224569
0.968                  0.8373256      -0.5245285
0.972                  0.8357848       -0.526597
0.976                  0.8342387      -0.5286621
0.98                    0.832687      -0.5307246
0.984                  0.8311299       -0.532784
0.988                  0.8295675      -0.5348404
0.992                  0.8279998      -0.5368944
0.996                  0.8264267      -0.5389456
1                      0.8248487      -0.5409942
1.004                  0.8232653      -0.5430405
1.008                  0.8216769      -0.5450844
1.012                  0.8200837      -0.5471257
1.016                   0.818485      -0.5491654
1.02                   0.8168817      -0.5512025
1.024                  0.8152734      -0.5532379
1.028                  0.8136601      -0.5552714
1.032                  0.8120421      -0.5573029
1.036                   0.810419      -0.5593331
1.04                   0.8087911      -0.5613616
1.044                   0.807158      -0.5633894
1.048                  0.8055205      -0.5654152
1.052                  0.8038781      -0.5674398
1.056                  0.8022305      -0.5694637
1.06                   0.8005782      -0.5714866
1.064                  0.7989208      -0.5735092
1.068                  0.7972587      -0.5755304
1.072                  0.7955917      -0.5775514
1.076                  0.7939196      -0.5795718
1.08                   0.7922422      -0.5815925
1.084                    0.79056      -0.5836126
1.088                  0.7888728      -0.5856327
1.092                  0.7871799      -0.5876535
1.096                  0.7854823      -0.5896736
1.1                    0.7837792      -0.5916947
1.104                  0.7820708       -0.593716
1.108                  0.7803566      -0.5957384
1.112                  0.7786372      -0.5977612
1.116                  0.7769122      -0.5997847
1.12                   0.7751814      -0.6018094
1.124                  0.7734444      -0.6038355
1.128                   0.771702      -0.6058623
1.132                  0.7699534      -0.6078907
1.136                  0.7681987      -0.6099205
1.14                   0.7664376       -0.611952
1.144                  0.7646702      -0.6139851
1.148                  0.7628965      -0.6160199
1.152                   0.761116      -0.6180567
1.156                  0.7593287      -0.6200955
1.16                   0.7575345      -0.6221362
1.164                  0.7557333      -0.6241792
1.168                  0.7539248      -0.6262246
1.172                   0.752109      -0.6282722
1.176                  0.7502857      -0.6303223
1.18                   0.7484547      -0.6323748
1.184                   0.746616        -0.63443
1.188                   0.744769      -0.6364878
1.192                  0.7429139      -0.6385484
1.196                  0.7410505      -0.6406118
1.2                    0.7391784      -0.6426779
1.204                  0.7372978       -0.644747
1.208                  0.7354081       -0.646819
1.212                  0.7335092      -0.6488941
1.216                  0.7316012       -0.650972
1.22                   0.7296835      -0.6530531
1.224                  0.7277562      -0.6551373
1.228                   0.725819      -0.6572247
1.232                  0.7238716       -0.659315
1.236                  0.7219141      -0.6614085
1.24                   0.7199459      -0.6635053
1.244                   0.717967       -0.665605
1.248                   0.715977       -0.667708
1.252                  0.7139761      -0.6698141
1.256                  0.7119637      -0.6719232
1.26                   0.7099398      -0.6740355
1.264                  0.7079039      -0.6761508
1.268                   0.705856      -0.6782691
1.272                  0.7037961      -0.6803905
1.276                  0.7017236      -0.6825148
1.28                   0.6996382      -0.6846419
1.284                  0.6975403       -0.686772
1.288                   0.695429      -0.6889048
1.292                  0.6933045      -0.6910403
1.296                  0.6911665      -0.6931785
1.3                    0.6890149      -0.6953191
1.304                  0.6868491      -0.6974623
1.308                  0.6846691      -0.6996078
1.312                  0.6824747      -0.7017557
1.316                   0.680266      -0.7039057
1.32                   0.6780421      -0.7060578
1.324                  0.6758032       -0.708212
1.328                  0.6735492      -0.7103679
1.332                  0.6712798      -0.7125256
1.336                  0.6689947      -0.7146848
1.34                   0.6666937      -0.7168457
1.344                  0.6643769      -0.7190078
1.348                  0.6620436      -0.7211712
1.352                  0.6596938      -0.7233356
1.356                  0.6573277      -0.7255009
1.36                   0.6549446      -0.7276669
1.364                  0.6525444      -0.7298336
1.368                  0.6501272      -0.7320007
1.372                  0.6476925       -0.734168
1.376                  0.6452405      -0.7363355
1.38                   0.6427705      -0.7385029
1.384                  0.6402828        -0.74067
1.388                  0.6377771      -0.7428367
1.392                  0.6352531      -0.7450027
1.396                  0.6327106       -0.747168
1.4                    0.6301497      -0.7493322
1.404                    0.62757      -0.7514952
1.408                  0.6249716      -0.7536568
1.412                  0.6223542      -0.7558169
1.416                  0.6197177      -0.7579751
1.42                   0.6170619      -0.7601312
1.424                  0.6143869      -0.7622852
1.428                  0.6116921      -0.7644368
1.432                  0.6089777      -0.7665856
1.436                  0.6062436      -0.7687316
1.44                   0.6034896      -0.7708744
1.444                  0.6007156      -0.7730141
1.448                  0.5979213      -0.7751501
1.452                  0.5951069      -0.7772824
1.456                  0.5922722      -0.7794107
1.46                    0.589417      -0.7815347
1.464                  0.5865414      -0.7836543
1.468                   0.583645      -0.7857693
1.472                  0.5807278      -0.7878793
1.476                  0.5777901      -0.7899842
1.48                   0.5748312      -0.7920837
1.484                  0.5718514      -0.7941777
1.488                  0.5688507      -0.7962658
1.492                  0.5658288      -0.7983477
1.496                  0.5627858      -0.8004233
1.5                    0.5597214      -0.8024924
1.504                  0.5566357      -0.8045546
1.508                  0.5535286      -0.8066099
1.512                  0.5504001      -0.8086578
1.516                  0.5472501      -0.8106982
1.52                   0.5440785      -0.8127308
1.524                  0.5408856      -0.8147555
1.528                  0.5376708      -0.8167719
1.532                  0.5344344      -0.8187797
1.536                  0.5311763      -0.8207788
1.54                   0.5278965       -0.822769
1.544                  0.5245948      -0.8247499
1.548                  0.5212714      -0.8267214
1.552                  0.5179263      -0.8286832
1.556                   0.514559       -0.830635
1.56                     0.51117      -0.8325766
1.564                   0.507759      -0.8345078
1.568                  0.5043263      -0.8364283
1.572                  0.5008715      -0.8383377
1.576                  0.4973946      -0.8402362
1.58                   0.4938959      -0.8421231
1.584                   0.490375      -0.8439984
1.588                  0.4868325      -0.8458617
1.592                  0.4832676       -0.847713
1.596                  0.4796808      -0.8495517
1.6                    0.4760721      -0.8513779
1.604                  0.4724415      -0.8531911
1.608                  0.4687887      -0.8549911
1.612                  0.4651139      -0.8567779
1.616                  0.4614171      -0.8585508
1.62                   0.4576984      -0.8603101
1.624                  0.4539576      -0.8620551
1.628                  0.4501949      -0.8637857
1.632                  0.4464102      -0.8655016
1.636                  0.4426037      -0.8672027
1.64                   0.4387749      -0.8688886
1.644                  0.4349246      -0.8705591
1.648                  0.4310521      -0.8722138
1.652                  0.4271579      -0.8738527
1.656                  0.4232416      -0.8754755
1.66                   0.4193038      -0.8770816
1.664                  0.4153441      -0.8786712
1.668                  0.4113624      -0.8802438
1.672                  0.4073594       -0.881799
1.676                  0.4033342       -0.883337
1.68                   0.3992876      -0.8848569
1.684                  0.3952192       -0.886359
1.688                  0.3911294      -0.8878427
1.692                  0.3870179      -0.8893078
1.696                  0.3828849      -0.8907541
1.7                    0.3787303      -0.8921812
1.704                  0.3745547       -0.893589
1.708                  0.3703572       -0.894977
1.712                  0.3661389      -0.8963451
1.716                  0.3618989      -0.8976929
1.72                   0.3576379      -0.8990203
1.724                  0.3533558      -0.9003267
1.728                  0.3490526       -0.901612
1.732                  0.3447285       -0.902876
1.736                  0.3403834      -0.9041181
1.74                   0.3360175      -0.9053385
1.744                  0.3316308      -0.9065363
1.748                  0.3272235      -0.9077117
1.752                  0.3227953      -0.9088643
1.756                   0.318347      -0.9099935
1.76                   0.3138782      -0.9110992
1.764                  0.3093891      -0.9121811
1.768                  0.3048798      -0.9132389
1.772                  0.3003507      -0.9142722
1.776                  0.2958014       -0.915281
1.78                   0.2912322      -0.9162646
1.784                  0.2866435      -0.9172228
1.788                  0.2820351      -0.9181553
1.792                  0.2774073      -0.9190618
1.796                  0.2727602       -0.919942
1.8                    0.2680942      -0.9207956
1.804                  0.2634088       -0.921622
1.808                  0.2587052      -0.9224213
1.812                  0.2539825      -0.9231929
1.816                  0.2492415      -0.9239366
1.82                   0.2444822       -0.924652
1.824                  0.2397048      -0.9253389
1.828                  0.2349095      -0.9259967
1.832                  0.2300964      -0.9266255
1.836                  0.2252659      -0.9272246
1.84                   0.2204182      -0.9277937
1.844                  0.2155534      -0.9283327
1.848                  0.2106717      -0.9288411
1.852                  0.2057734      -0.9293186
1.856                  0.2008589       -0.929765
1.86                   0.1959284        -0.93018
1.864                  0.1909819       -0.930563
1.868                  0.1860197      -0.9309139
1.872                  0.1810427      -0.9312324
1.876                  0.1760502       -0.931518
1.88                   0.1710433      -0.9317707
1.884                  0.1660219      -0.9319898
1.888                  0.1609866      -0.9321753
1.892                  0.1559373      -0.9323269
1.896                  0.1508745      -0.9324442
1.9                    0.1457987      -0.9325268
1.904                    0.14071      -0.9325746
1.908                  0.1356088      -0.9325873
1.912                  0.1304958      -0.9325646
1.916                  0.1253709       -0.932506
1.92                   0.1202346      -0.9324116
1.924                  0.1150872      -0.9322809
1.928                  0.1099292      -0.9321138
1.932                  0.1047614      -0.9319098
1.936                 0.09958325      -0.9316689
1.94                  0.09439611      -0.9313908
1.944                 0.08919965      -0.9310751
1.948                 0.08399483      -0.9307218
1.952                  0.0787818      -0.9303306
1.956                 0.07356089      -0.9299012
1.96                  0.06833288      -0.9294335
1.964                 0.06309815      -0.9289272
1.968                 0.05785684      -0.9283823
1.972                 0.05260972      -0.9277986
1.976                 0.04735695      -0.9271756
1.98                  0.04209912      -0.9265136
1.984                 0.03683702      -0.9258121
1.988                 0.03157083      -0.9250712
1.992                 0.02630111      -0.9242907
1.996                 0.02102848      -0.9234704
2                     0.01575288      -0.9226102
2.004                 0.01047533        -0.92171
2.008                0.005196217      -0.9207698
2.012              -8.407035e-05      -0.9197894
2.016               -0.005364495      -0.9187689
2.02                 -0.01064533      -0.9177081
2.024                -0.01592597       -0.916607
2.028                -0.02120538      -0.9154654
2.032                -0.02648338      -0.9142836
2.036                -0.03175938      -0.9130614
2.04                 -0.03703299      -0.9117988
2.044                 -0.0423036      -0.9104958
2.048                -0.04757062      -0.9091525
2.052                -0.05283365      -0.9077689
2.056                -0.05809211       -0.906345
2.06                 -0.06334562      -0.9048809
2.064                -0.06859335      -0.9033766
2.068                -0.07383515      -0.9018324
2.072                -0.07907043      -0.9002481
2.076                 -0.0842986       -0.898624
2.08                 -0.08951908      -0.8969601
2.084                -0.09473149      -0.8952568
2.088                -0.09993527      -0.8935138
2.092                 -0.1051301      -0.8917317
2.096                 -0.1103155      -0.8899102
2.1                   -0.1154906      -0.8880499
2.104                 -0.1206552      -0.8861507
2.108                 -0.1258089       -0.884213
2.112                 -0.1309511      -0.8822368
2.116                 -0.1360816      -0.8802225
2.12                  -0.1411996      -0.8781703
2.124                 -0.1463048      -0.8760803
2.128                  -0.151397      -0.8739529
2.132                 -0.1564751      -0.8717884
2.136                 -0.1615394      -0.8695868
2.14                  -0.1665891      -0.8673486
2.144                 -0.1716241      -0.8650742
2.148                 -0.1766438      -0.8627636
2.152                 -0.1816476      -0.8604172
2.156                 -0.1866357      -0.8580354
2.16                  -0.1916072      -0.8556185
2.164                  -0.196562      -0.8531668
2.168                 -0.2014996      -0.8506805
2.172                   -0.20642      -0.8481601
2.176                 -0.2113226       -0.845606
2.18                   -0.216207      -0.8430185
2.184                 -0.2210732      -0.8403978
2.188                 -0.2259207      -0.8377444
2.192                 -0.2307495      -0.8350586
2.196                 -0.2355591       -0.832341
2.2                   -0.2403491      -0.8295916
2.204                 -0.2451195      -0.8268111
2.208                 -0.2498702      -0.8239997
2.212                 -0.2546009      -0.8211579
2.216                 -0.2593112      -0.8182859
2.22                   -0.264001      -0.8153843
2.224                 -0.2686702      -0.8124533
2.228                 -0.2733188      -0.8094934
2.232                 -0.2779462       -0.806505
2.236                 -0.2825529      -0.8034884
2.24                  -0.2871381      -0.8004441
2.244                 -0.2917021      -0.7973723
2.248                 -0.2962449      -0.7942736
2.252                 -0.3007661      -0.7911482
2.256                 -0.3052659      -0.7879966
2.26                   -0.309744      -0.7848191
2.264                 -0.3142005      -0.7816162
2.268                 -0.3186353       -0.778388
2.272                 -0.3230487       -0.775135
2.276                   -0.32744      -0.7718577
2.28                    -0.33181      -0.7685562
2.284                 -0.3361582      -0.7652311
2.288                 -0.3404848      -0.7618824
2.292                 -0.3447898      -0.7585108
2.296                 -0.3490731      -0.7551163
2.3                   -0.3533351      -0.7516994
2.304                 -0.3575754      -0.7482604
2.308                 -0.3617946      -0.7447994
2.312                 -0.3659924       -0.741317
2.316                 -0.3701692      -0.7378132
2.32                  -0.3743248      -0.7342885
2.324                 -0.3784595      -0.7307429
2.328                 -0.3825735      -0.7271768
2.332                 -0.3866667      -0.7235904
2.336                 -0.3907393       -0.719984
2.34                  -0.3947913      -0.7163576
2.344                 -0.3988232      -0.7127118
2.348                 -0.4028348      -0.7090464
2.352                 -0.4068266      -0.7053615
2.356                 -0.4107986      -0.7016576
2.36                  -0.4147509      -0.6979348
2.364                 -0.4186837      -0.6941931
2.368                 -0.4225971      -0.6904327
2.372                 -0.4264917      -0.6866536
2.376                  -0.430367      -0.6828561
2.38                  -0.4342235      -0.6790401
2.384                 -0.4380613      -0.6752058
2.388                 -0.4418807      -0.6713532
2.392                 -0.4456821      -0.6674822
2.396                 -0.4494651      -0.6635932
2.4                     -0.45323      -0.6596859
2.404                 -0.4569775      -0.6557602
2.408                 -0.4607072      -0.6518165
2.412                 -0.4644195      -0.6478545